% Model:              eigenfreq_and_eigenvector(structure4,elastic_load).mph
% Version:            COMSOL 6.2.0.290
% Date:               Mar 18 2026, 15:18
% Dimension:          1
% Nodes:              2806
% Expressions:        20
% Description:        Global
% x,Average 1,Average 1,Average 1,Average 1,Average 1,Average 1,Average 1,Average 1,Average 1,Average 1,Average 1,Average 1,Average 1,Average 1,Average 1,Average 1,Average 1,Average 1,Average 1,Average 1
1.0E-8,2.4753066995880842E-12,3.6529956046388454E-7,0.004675009339443091,0.029813768995528032,1097.8183969263146,1448.8425188463466,1908.3244624395961,2155.54920633724,2600.143008011141,3953.1216210741536,4028.383539519754,4087.2170661164055,4389.60579909956,5653.172114736687,5752.9270332913675,5795.715594225239,7779.16207750136,8026.100619970198,8126.863731627966,8828.183318847961
5.235987755982989,3.32432834911998E-11,1.230286471947238E-7,1.1598774856473595,220.03949481281555,1102.7603239905695,1449.2075799778013,1912.0305810176885,2155.9624086254867,2603.0706427141795,3953.8519448365782,4028.443861788898,4087.312678357345,4389.41267291474,5653.6690428773945,5752.85327141287,5795.674258124966,7780.07611141559,8026.113060516877,8127.433281839749,8828.19379444494
10.471975511965978,2.6611101696142852E-11,1.5364791735329844E-6,4.6505187686841465,416.2155411340676,1118.1079505370194,1450.3685335125842,1923.2841482063725,2157.209697020322,2611.974940815785,3955.9862108102193,4028.6166260780496,4087.6057946918504,4388.834543476297,5654.958325143724,5752.663674775469,5795.556285951931,7782.8060382497315,8025.930800308781,8129.032645199144,8828.007118319118
15.707963267948966,3.3993845232545434E-10,1.0907855237928396E-7,10.590197131138646,577.7121922146708,1145.1679878077834,1452.5435967557398,1942.4231102878362,2159.2709117844583,2627.236743563903,3959.5509236272783,4028.8988122882165,4088.1057409664554,4387.877837036079,5657.116567150093,5752.347784817403,5795.360585354427,7787.312984254854,8025.628278461646,8131.76728226595,8827.696941347951
20.943951023931955,6.307415436888026E-8,15.162157441935108,44.83610398397952,702.7008864590584,1184.7936488216158,1456.1953843226124,1969.8745498390226,2162.120077976255,2649.5020466841443,3964.556836599684,4029.281726483707,4088.830752558097,4386.552893639889,5660.15770283904,5751.905761636465,5795.0885444011665,7793.528629727909,8025.207406982852,8135.74431921032,8827.264570752737
26.179938779914945,2.2316537603346017E-8,27.786399002063458,120.34280400655315,793.900131764792,1234.7189546077907,1462.229069197131,2005.8824616178347,2165.721641386241,2679.6853715647926,3971.0173382729554,4029.7530602536485,4089.808875598185,4384.8743521712695,5664.101624868484,5751.337838232292,5794.742073181747,7801.34976343664,8024.670955216599,8141.12068863625,8826.711899586358
31.41592653589793,2.662730354944206E-10,40.22249044087728,172.37724688834538,858.036844248526,1287.7400967795402,1472.3249673158653,2050.098049413224,2170.0312340551795,2718.930320072432,3978.9465441091957,4030.296769782474,4091.081033000185,4382.861296780646,5668.974122989542,5750.64432898799,5794.3235965641925,7810.631410496885,8024.022642004703,8148.10927249919,8826.041309204365
36.65191429188092,6.8662097354122786E-9,54.63727541801776,218.12686172406498,903.5475320755913,1334.1380927161167,1489.0003083578656,2101.19031806613,2174.9965844062576,2768.4774316490552,3988.3560922906045,4030.8929273208482,4092.7060697313273,4380.537436925632,5674.807113307552,5749.825641332761,5793.836026491162,7821.179550039033,8023.267260018579,8156.985186627937,8825.255657610827
41.88790204786391,1.5349811173017512E-8,71.04139832775267,260.781263106525,937.4010179159707,1367.155977765067,1513.7771543169179,2156.80722127963,2180.558534868133,2829.3935214346902,3999.2498501238715,4031.517562553516,4094.769081386721,4377.931303032133,5681.638849882691,5748.882290743877,5793.282731145944,7832.74539726581,8022.410833393628,8168.090127859308,8824.358241852238
47.1238898038469,5.983169609622702E-9,89.37715075668419,301.5240592066379,964.1110814964788,1387.0954199207224,1544.1352379799166,2186.6521106486334,2214.0936926701006,2902.187237555803,4011.614770984866,4032.142510717294,4097.395585859257,4375.076440430028,5689.514146508071,5747.814919190617,5792.6674991269465,7845.024342985655,8021.4608132557405,8181.831606257475,8823.352746157872
52.35987755982989,1.8477186281365317E-9,109.56931820384132,340.91033997402633,986.3039214697113,1398.5258391576954,1575.4055243195287,2193.2076506371604,2270.513466870297,2986.464254097067,4025.4042603295243,4032.735299164845,4100.776582827957,4372.011576434621,5698.484594480852,5746.62431741425,5791.994498700188,7857.66339307933,8020.426315660432,8198.67312933034,8822.243165977094
57.59586531581287,1.1229148060916936E-11,131.5341378827679,379.23306167104755,1005.4680219277767,1405.3099007465096,1604.5982176107848,2200.1518512852795,2324.438973761022,3080.8293784125854,4033.258983696925,4040.506812578933,4105.214376174014,4368.78072706398,5708.608745935521,5745.311451399601,5791.268232663322,7870.280265377162,8019.318402750919,8219.112081105604,8821.033691224526
62.83185307179586,5.988202726627172E-10,155.182339051036,416.6567319824812,1022.4602796288835,1409.5817775500093,1630.6884692587535,2207.408836073759,2375.224279493651,3183.0945082563417,4033.67250668799,4056.6873506677503,4111.205742528188,4365.433200193105,5719.952238014759,5743.877494441088,5790.493489391723,7882.494119612673,8018.150403017754,8243.645240595031,8819.728511425876
68.06784082777887,5.420058623861846E-10,180.4207299012847,453.275911118055,1037.7933902742,1412.4204591735124,1653.61138091786,2214.9011197090963,2422.9090239090215,3290.628187194613,4033.9304519658713,4073.5045578985732,4119.5686387990845,4362.023442102673,5732.587796846518,5742.323882168939,5789.675290706808,7893.96245976445,8016.938251799904,8272.727344627254,8818.331458191404
73.30382858376184,1.1519818287175076E-9,207.15325806811992,489.1441127714402,1051.7911625309773,1414.387208848136,1673.6288389827462,2222.5505008620644,2467.852411389606,3400.621978718023,4033.983779669175,4090.3404244199364,4131.489774821678,4358.610665815692,5740.652028074546,5746.595437073814,5788.818837460787,7904.413948566645,8015.70080972081,8306.732958190649,8816.84527088127
78.53981633974483,5.414165879703685E-9,235.2818019125436,524.2893953536869,1064.671772675606,1415.7914397784468,1691.0700000546308,2230.278865453069,2510.473804033764,3510.1504853874508,4033.780411310045,4106.988822015689,4148.073188168514,4355.258195647471,5738.86445662489,5762.06104176097,5787.92945382266,7913.66680319201,8014.4600779199745,8345.932072538622,8815.269869008316
83.77580409572782,6.888168989311287E-10,264.70677792030136,558.7233605677106,1076.5925885709312,1416.8140970738057,1706.245114674356,2238.0089004394968,2551.124322696951,3616.007414888633,4033.266271298536,4124.661224274397,4169.565444234217,4352.032466506613,5736.963172722261,5779.077437055311,5787.012531997728,7921.628331295316,8013.241175308419,8390.484080871194,8813.597508274966
89.01179185171081,1.1597433419388822E-9,295.32759871432125,592.4466360356674,1087.6744682943945,1417.5666949500958,1719.425038335512,2245.664722662521,2590.047909218972,3714.3768005643656,4032.3866996209285,4145.919222302992,4195.74428006911,4349.00163336321,5734.951017824713,5786.073468990972,5797.742149132718,7928.279201468852,8012.071883568218,8440.446887123846,8811.795309399775
94.2477796076938,1.618496059113547E-9,327.0429999599993,625.4523689191022,1098.0150277484472,1418.1211114938214,1730.842252482614,2253.1724315594684,2627.387565523613,3800.6390916259193,4031.0882531879697,4173.460478564263,4227.289659729813,4346.233779856237,5732.831229456678,5785.117635293072,5818.156516054522,7933.650848377799,8010.981530629462,8495.793220970138,8809.70917645527
99.48376736367678,1.4098577037003451E-9,359.7512506080736,657.7285409223908,1107.6959583662626,1418.525476823445,1740.6971538054909,2260.4605978114023,2663.2084953504777,3870.225543150889,4029.3208538767294,4207.80639457409,4267.200505563968,4343.79476622238,5730.607548723402,5784.1502950933145,5840.423827619538,7937.804054848594,8009.999031928717,8556.426627725532,8805.854600063822
104.71975511965978,2.035248529314667E-9,393.3502548564101,689.259555409645,1116.787138221233,1418.8130873406635,1749.1643243104681,2267.4607016048412,2697.523912847409,3921.1933405412715,4027.0401764986527,4245.009468695398,4320.476974099276,4341.745823727953,5728.284273878184,5783.176579362139,5864.646950468541,7940.813249271965,8009.150112004101,8622.192970962855,8791.868587292667
109.95574287564277,6.604320486702684E-10,427.73755621301905,720.0273613962573,1125.3490239828432,1419.0076388671644,1756.3974890699535,2274.10753586813,2730.3175812627915,3955.919349062197,4024.2101027122512,4280.990356273182,4340.141038845911,4388.062976232778,5725.866310657435,5782.201437772591,5890.925450771367,7942.757302242396,8008.454105122494,8692.886694019811,8773.334272768108
115.19173063162575,1.6198479433556663E-9,462.8102513313242,750.0122743701055,1133.4341286412423,1419.1264242787688,1762.5331696096869,2280.3395900364185,2761.561252139154,3979.0601529648116,4020.8050151315006,4315.4625609053055,4339.025060383757,4464.942532403374,5723.359220914793,5781.229602477996,5919.352214710521,7943.715177733617,8007.921148024596,8754.138474603762,8768.252978000692
120.42771838760873,2.8069857651690716E-10,498.4648199669793,779.1935952581757,1141.088016112133,1419.182357753723,1767.6933570063204,2286.099429887073,2791.2269839403016,3994.754998190314,4016.8116870287595,4338.43101203064,4349.16080008785,4545.695780145886,5720.769268870131,5780.265557126419,5950.009663106103,7943.763964038916,8007.550732728274,8734.67697983936,8801.767203365787
125.66370614359172,1.8670697449153579E-10,534.5968759261013,807.550092896629,1148.3500405187328,1419.1852977156482,1771.9875221648238,2291.3340884539384,2819.29502258439,4005.7736888390696,4012.230551316475,4338.379309849377,4382.4458632286605,4626.737370233871,5718.103464238451,5779.313511854773,5982.965705788672,7942.977259450705,8007.332230734238,8715.088867645487,8799.840722341953
130.89969389957471,1.818463631991986E-9,571.1008419756247,835.0603957970535,1155.2539466901399,1419.1429365735464,1775.5141952484676,2295.995482063633,2845.758133890247,4007.0762024082096,4013.799668292199,4338.876777357262,4415.370659768823,4705.961401715088,5715.369601211852,5778.377384152286,6018.269627068326,7941.423012362895,8007.247238944932,8695.470415525619,8797.93282308138
136.13568165555773,9.20622533059195E-10,607.8695485099664,861.7033248025153,1161.8283906831116,1419.061415274465,1778.3622634157534,2300.0408640835058,2870.6232733167762,4001.377109585089,4019.844224247095,4339.916973000321,4447.838934304718,4782.163273500742,5712.576292180251,5777.460785622592,6055.948116333317,7939.160975776724,8007.272907866682,8675.905419795365,8796.042569825953
141.3716694115407,1.2473183164785266E-10,644.7937537490833,887.4581929783071,1168.0974080328158,1418.945758430751,1780.612075775591,2303.433327477082,2893.9113844056287,3995.174577902749,4024.528361170643,4341.480958392409,4479.690444931878,4854.667918895763,5709.7329949494215,5776.567014201782,6096.0016474575295,7936.240413351406,8007.385219125514,8656.472428683077,8794.17313261706
146.60765716752368,5.1177610477293154E-11,681.7615785712279,912.3050954547549,1174.080843318141,1418.8001901850503,1782.3364057948866,2306.142364855563,2915.655989144885,3988.5211596327636,4028.2461091873083,4343.538697727359,4510.743655245601,4923.118642960476,5706.850032090314,5775.699051650473,6138.4013677003695,7932.698578449915,8007.5614864478885,8637.246967472734,8792.329420591466
151.84364492350667,1.350127204391113E-9,718.657844088881,936.2252136464676,1179.7947462316267,1418.6283680810961,1783.6012991000068,2308.144492256389,2935.901096966434,3981.478686234394,4031.256172761544,4346.050794436311,4540.818734134501,4987.356733327877,5703.938600690442,5774.859565658027,6183.086589068605,7928.560121172808,8007.781840502102,8618.302298789207,8790.517108207116
157.07963267948966,5.160532532226521E-10,755.3632917308718,959.2011638815118,1185.2517385202202,1418.433560696864,1784.4668224717577,2309.4239393367575,2954.698827766888,3974.116143732272,4033.7339424679094,4348.970370283854,4569.750783875361,5047.349854729326,5701.01077100326,5774.050916272858,6229.962900293795,7923.837285740472,8008.029824686341,8599.709662854226,8788.742183801869
162.31562043547265,6.388030731244149E-10,791.753653066219,981.2174330627057,1190.461353115207,1418.218784349842,1784.9877238334934,2309.9734045630516,2972.107026870764,3966.507564845808,4035.801808648767,4352.244916093849,4597.3974768870685,5103.147241170417,5698.079471786629,5773.275165943687,6278.900851296338,7918.530655901727,8008.292381048781,8581.538306493783,8787.010715428005
167.55160819145564,1.2320720529384515E-10,827.6985143964059,1002.2609669826876,1195.4303485626278,1417.9869102068187,1785.2140102898736,2309.7948685839074,2988.1870518284227,3958.7300658432882,4037.5473855494756,4355.817993335928,4623.642994304246,5154.850385180119,5695.158460602598,5772.534092773434,6329.7351138410995,7912.630247810727,8008.559500368679,8563.85541719737,8785.32871704739
172.78759594743863,6.223957531421741E-9,863.059882365963,1022.3220192697179,1200.1630014674297,1417.7407487213475,1785.191450308669,2308.9004522306723,3003.00183258726,3950.862103970613,4039.0348129955573,4359.6307191420365,4648.399280315401,5202.593252683334,5692.262276973866,5771.829206455719,6382.263989623536,7906.116856988088,8008.823737202488,8546.726011192082,8783.702065559513
178.02358370342162,2.1471107927888266E-11,897.6902845623068,1041.395446755981,1204.661379633328,1417.4831157014776,1784.9620056692738,2307.3132968072405,3016.6142491758656,3942.981987017765,4040.3119739075855,4363.623012739606,4671.605299102498,5246.52868095809,5689.406176512996,5771.161766353878,6436.249109796987,7898.96368522865,8009.079711605527,8530.212797842529,8782.136445614457
183.2595714594046,4.802927077561386E-10,931.4301011304093,1059.4827834610842,1208.925599876594,1417.2168829706848,1784.564198944028,2305.068433489176,3029.08583059444,3935.1666345923045,4041.415229876662,4367.734613880647,4693.224856374466,5286.818941753463,5686.606044345541,5770.532801289241,6491.415135807146,7891.138384845177,8009.323658684695,8514.376031471493,8780.637310804535
188.4955592153876,8.504245561722228E-11,964.1035554183484,1076.5957063393303,1212.954073367819,1416.9450147989744,1784.0334219919253,2302.2135947628976,3040.4757537909486,3927.490571698815,4042.372605684839,4371.90590323584,4713.243480191187,5323.629158923593,5683.878286512819,5769.943130573025,6547.449224163537,7882.605762549546,8009.553048968698,8499.273356503681,8779.209855144767
193.7315469713706,7.394370207942725E-10,995.5122631302924,1092.76204896628,1216.743742628279,1416.6705909233838,1783.4021911724158,2298.8099036577228,3050.8401071705093,3920.0251262254747,4043.205978900011,4376.078563036073,4731.664791597355,5357.122688617836,5681.2396985196765,5769.393385850245,6603.99995630901,7873.33149291491,8009.766281813049,8484.959649508664,8777.85899146283
198.96753472735355,3.3936459539045836E-10,1025.4242380898108,1108.0365425934106,1220.2903129883678,1416.3968159630263,1782.7003546143183,2294.9323563220414,3060.231377240677,3912.837800476941,4043.9326158241865,4380.196116815283,4748.506719108966,5387.4578456772615,5678.707310974814,5768.884033435792,6660.675365050495,7863.287308200465,8009.962444154094,8471.486860513805,8776.589334668613
204.20352248333654,5.249074427748565E-10,1053.5546250393488,1122.520114149476,1223.5884813425348,1416.1270146689565,1781.9552568405543,2290.669990061664,3068.698116597027,3905.9917889289404,4044.566268426497,4384.204382821731,4763.797825717936,5414.785555504887,5676.298212892219,5768.415396655652,6717.039616601898,7852.458259377181,8010.141123751726,8458.903855536419,8775.405188669534
209.43951023931956,2.911762213155475E-10,1079.533498410104,1136.3925281972397,1226.6321647553164,1415.8646130034042,1781.1918660983515,2286.125604968912,3076.2847539138884,3899.5456184082473,4045.117970273166,4388.051869213178,4777.573932024966,5439.247650851524,5674.0293544401875,5767.987677924104,6772.607843233595,7840.852768819036,8010.302265788908,8447.256261942453,8774.310536068702
214.67549799530252,2.693773705626E-10,1102.865836059017,1149.9534128422818,1229.41472992427,1415.6131042816532,1780.4328690370508,2281.4148858549693,3083.0315113378556,3893.5528906454892,4045.596622463157,4391.690131756771,4789.875142405125,5460.975629976471,5671.9173317800105,5767.600980275752,6826.838592872975,7828.516277983121,8010.4460630144895,8436.586318262904,8773.309030060747
219.91148575128554,3.169284016066468E-10,1122.9456326406391,1163.6098684309102,1231.9292240533186,1415.3760010023484,1779.698737846909,2276.6647592752297,3088.9743994400187,3888.062110572261,4046.0094298912427,4395.074107910561,4800.743318903339,5480.08975619951,5669.9781578306265,5767.2553279295935,6879.123443951003,7815.549235889017,8010.572871257573,8426.932730053451,8772.403988135124
225.1474735072685,8.32164139136543E-11,1139.2934844988547,1177.6414864035771,1234.1686064224837,1415.1567731395905,1779.0077742008784,2272.0108272215843,3094.1452654392365,3883.116585649554,4046.3622296530566,4398.162434885955,4810.220001611181,5496.698417674992,5668.227023964203,5766.950685793827,6928.77370891659,7802.129767095921,8010.6831440076985,8418.330533351822,8771.598387188269
230.3834612632515,2.5866893202411167E-10,1151.9798533907492,1191.780694983909,1236.1259779083225,1414.9587745117576,1778.3761346864494,2267.593756787695,3098.5718747344704,3878.7543830091245,4046.6597399826455,4400.917754376248,4818.344743932192,5510.897688587607,5666.678058387285,5766.686977472292,6975.005205651639,7788.540189814043,8010.777381115055,8410.810967304995,8770.894859806791
235.6194490192345,3.5183816708980093E-10,1161.6163185615403,1205.226168949902,1237.7948053907965,1414.7851604877424,1777.817841711,2263.5545856038675,3102.2780101046073,3875.008331589592,4046.9057497757135,4403.30700250277,4825.153814022698,5522.771045715584,5665.344088168,5766.464101752685,7016.924502260443,7775.193922917611,8010.856088117461,8404.401357524537,8770.295691496693
240.85543677521747,1.1065872855154817E-10,1168.8739426849017,1217.1300955031809,1239.1691358361531,1414.6388006546085,1777.3447839182304,2260.02903287288,3105.283576551089,3871.906056871976,4047.1032630367554,4405.301680802909,4830.679206911198,5532.389201684245,5664.236412044361,5766.281947228511,7053.524732616133,7762.654338464839,8010.919743709305,8399.125011588078,8769.802818640848
246.0914245312005,1.5896072187664553E-10,1174.2124106674778,1226.8753823921952,1240.2437939084507,1414.5221912451063,1776.966709809868,2257.1410806954777,3107.6047023913625,3869.470036030763,4047.254608250183,4406.8781022260755,4834.9479119657935,5539.810021740849,5663.364591659667,5766.140404963327,7083.706239505906,7751.62961614156,8010.9687736299875,8395.001128090973,8769.41782706008
251.32741228718345,4.233132924500678E-10,1177.8942452431081,1234.0680538841318,1241.0145571350452,1414.437373131624,1776.691217617416,2254.996285736801,3109.2538298579434,3867.717661870173,4047.361520012239,4408.017605196789,4837.981385369987,5545.078495501922,5662.736268611017,5766.039379080194,7106.343805759758,7742.920825355763,8011.0035300275395,8392.04472041558,8769.141950994683
256.56340004316644,1.5868881616430982E-10,1180.058969286539,1238.4693421452184,1241.4783015896628,1414.3858602562004,1776.5237444621646,2253.675453037761,3110.2397899791863,3866.6613049713496,4047.4251979347137,4408.706728821311,4839.795184858638,5548.226740029378,5662.357014042177,5765.978795057009,7120.4179564486285,7737.304503329979,8011.024275634294,8390.26655631881,8768.97607244808
261.79938779914943,5.112752275573216E-10,1180.773874158208,1239.95010801874,1241.6331050789872,1414.3685844286224,1776.4675568795876,2253.2293943764134,3110.5678584623197,3866.3083651146053,4047.4463464830096,4408.937343044605,4840.398733017944,5549.274015504,5662.2302167282905,5765.958605755088,7125.1985414907185,7735.360205303791,8011.031172576352,8389.673114150466,8768.920720774277
267.0353755551324,7.400353381896463E-11,1180.0589692927945,1238.4693421584761,1241.478301594211,1414.3858602655278,1776.5237444628744,2253.6754530427233,3110.2397899800953,3866.6613049740236,4047.425197939138,4408.706728822291,4839.7951848629,5548.226740031427,5662.357014044368,5765.978795059921,7120.4179564504,7737.304503331669,8011.024275635214,8390.266556318478,8768.97607244731
272.27136331111546,1.0368700275197221E-10,1177.8942452475217,1234.0680538909683,1241.014557128198,1414.437373121709,1776.69121761839,2254.99628573688,3109.2538298562463,3867.7176618698913,4047.361520007367,4408.017605197294,4837.981385365389,5545.078495499991,5662.736268614531,5766.039379083282,7106.343805758923,7742.920825355275,8011.003530026895,8392.044720414931,8769.141950993582
277.5073510670984,3.4697654757176185E-10,1174.212410663635,1226.8753823898305,1240.2437938997532,1414.5221912402592,1776.9667098159232,2257.141080691449,3107.604702393763,3869.4700360336524,4047.254608244319,4406.878102228818,4834.947911963632,5539.810021740001,5663.364591660876,5766.140404962325,7083.706239506262,7751.629616142067,8010.968773630655,8395.00112808964,8769.417827058975
282.7433388230814,1.7118930844610504E-10,1168.8739426911388,1217.1300954975611,1239.1691358139478,1414.638800637557,1777.344783923755,2260.0290328720753,3105.2835765449445,3871.906056872706,4047.1032630314135,4405.301680803653,4830.6792069100975,5532.389201684383,5664.236412044781,5766.281947227873,7053.524732616191,7762.654338465396,8010.919743707912,8399.125011590935,8769.802818643608
287.9793265790644,3.1932228757818836E-11,1161.6163185662251,1205.2261689407794,1237.7948053828616,1414.7851604798748,1777.8178417090292,2263.554585604322,3102.278010101944,3875.0083315908346,4046.905749777642,4403.307002503367,4825.153814023709,5522.771045715152,5665.344088163477,5766.46410174911,7016.924502260681,7775.193922917828,8010.8560881163985,8404.401357523338,8770.295691496141
293.21531433504737,5.88666254101341E-11,1151.9798533914527,1191.7806949814224,1236.1259779095499,1414.9587745096032,1778.3761346895033,2267.593756785995,3098.5718747340793,3878.7543830099503,4046.659739978234,4400.917754376262,4818.344743930276,5510.897688586869,5666.6780583847785,5766.6869774690695,6975.005205650179,7788.540189813069,8010.777381111483,8410.810967303372,8770.894859805243
298.45130209103036,1.063429665372109E-10,1139.293484499339,1177.641486401781,1234.1686064323799,1415.1567731516154,1779.0077741999228,2272.0108272219136,3094.1452654387385,3883.116585649853,4046.3622296577432,4398.162434886307,4810.2200016138795,5496.698417674888,5668.22702396158,5766.950685793887,6928.773708918365,7802.129767095344,8010.683144007369,8418.330533351602,8771.598387188236
303.68728984701335,7.52179727865068E-11,1122.945632642578,1163.609868439793,1231.9292240684933,1415.3760010193437,1779.6987378414035,2276.664759280085,3088.974399439114,3888.0621105675114,4046.009429889728,4395.074107907263,4800.743318902416,5480.089756202219,5669.97815782978,5767.255327931704,6879.123443947562,7815.549235887318,8010.572871257992,8426.932730051847,8772.403988132142
308.92327760299634,1.847433859460148E-10,1102.8658360638244,1149.95341284694,1229.4147298901028,1415.6131042604013,1780.4328690382576,2281.4148858595477,3083.0315113331953,3893.5528906441623,4045.596622455046,4391.690131757872,4789.875142400914,5460.975629976691,5671.917331773415,5767.600980270698,6826.838592871569,7828.516277982212,8010.446063010836,8436.586318262445,8773.309030059107
314.1592653589793,8.897035997288289E-11,1079.533498402346,1136.3925282109858,1226.6321647301577,1415.8646129833835,1781.191866096972,2286.12560497034,3076.2847539133136,3899.545618406371,4045.117970272314,4388.0518692118185,4777.5739320226085,5439.247650851272,5674.029354434625,5767.987677918333,6772.607843233445,7840.852768819861,8010.302265788184,8447.2562619407,8774.310536065945
1.0E-8,5.945419603275166E-12,2.1178933385852965E-7,0.030032375222154146,0.03685074522679523,1068.6722130587889,1448.8838608511032,1895.2387818497975,2154.4548619596444,2688.0590352584236,3953.658998138936,4000.133513156203,4088.433603539458,4413.814469334303,5654.376938530638,5752.445768005409,5796.820290404065,7776.582587544867,8030.432868801226,8132.500489246672,8828.30355100855
5.235987755982989,6.707964803358828E-7,2.4949222748121772E-12,1.1595675344283811,221.3598341586978,1073.3240837284313,1449.2663411826775,1898.5921461527969,2154.872380891257,2690.5438430381437,3954.0769001637477,4000.1728021651106,4088.5518152457093,4413.641020578041,5655.3485917494245,5752.391756016935,5796.781084786627,7777.457762197856,8030.502663296211,8133.093561575593,8828.19193709797
10.471975511965978,6.371790100773539E-7,6.421790727864344E-11,4.642897524851452,424.28868896793387,1088.140552951255,1450.496074124376,1908.8727837417732,2156.1200914998053,2698.1016368956166,3956.205880146775,4000.2838496309937,4088.865781328408,4413.123358765234,5656.658213510769,5752.205500634845,5796.658980715928,7780.072478923141,8030.344214361007,8134.754565839405,8828.004828539886
15.707963267948966,3.501253604073383E-12,1.5652186010416133E-8,10.488674772463082,596.5746983584575,1115.7507477793488,1452.849583137111,1926.4848521316928,2158.1820353789803,2711.050138407487,3959.760518108589,4000.463519502489,4089.401620675752,4412.267068404753,5658.850317137222,5751.895150472393,5796.456432306368,7784.388012050148,8030.081249351286,8137.5915496372245,8827.69387535718
20.943951023931955,9.341305615421546E-9,1.2352448161554296E-10,19.084489025234152,731.241535887231,1159.6519896573886,1456.9526658391133,1952.0885962612285,2161.032268886872,2729.935458358719,3964.749467460157,4000.703671695243,4090.179482167486,4411.081914577564,5661.939246739654,5751.460822516003,5796.174867244315,7790.337393251061,8029.715490315551,8141.710662939478,8827.26040404544
26.179938779914945,7.974453483074978E-9,25.904511429271814,74.08207503139211,826.6311167981466,1219.6205882998306,1464.1657949981122,1986.4115147106747,2164.6352857103507,2755.5486350471297,3971.182879120855,4000.9928440402123,4091.230443071195,4409.581656341143,5665.945123029293,5750.902688426657,5795.816264881406,7797.82018433247,8029.249424122073,8147.266591765789,8826.706259749688
31.41592653589793,5.7727874084086556E-9,39.75918782936572,143.82832545359105,889.592552927823,1285.746197131516,1477.4159670622837,2029.8767664420466,2168.9467774332843,2788.924287473897,3979.0700221920465,4001.316204279806,4092.600073901683,4407.7841252535945,5670.894104950495,5750.22098296615,5795.383136865855,7806.6965702239295,8028.686381405537,8154.4677957949,8826.033772901954
36.65191429188092,3.370665527300912E-9,54.34235937502118,196.42623042588747,931.6470353136101,1341.685626936635,1501.6895491891971,2082.025787239168,2173.914543724972,2831.2850905932323,3988.4153482441643,4001.6554964121224,4094.3542761852304,4405.711311694207,5676.818545418023,5749.416015251263,5794.878502022541,7816.781298141109,8028.030628372363,8163.581620692317,8825.245729548293
41.88790204786391,8.646623699285831E-10,70.80126819117436,243.01035258269775,961.9187426140796,1377.1004582289154,1539.2136404114667,2141.0326119136066,2179.4795086539916,2883.8801924431705,3999.2119368382564,4001.9890319231545,4096.5889183470135,4403.389447041101,5683.757192227982,5748.488183520516,5794.305855954055,7827.839270286767,8027.28747402621,8174.937409711259,8824.34532589745
47.1238898038469,6.307715969338797E-11,89.1592421194638,286.38264558754724,985.6147298396305,1395.6940367148154,1583.192361741205,2185.5767894725573,2203.8261170601363,2947.682032112702,4002.291421221306,4011.4306234499045,4099.446095179259,4400.849065821108,5691.755394302261,5747.437993570697,5793.66913494496,7839.5854548955185,8026.463389132687,8188.924870625651,8823.336101617642
52.35987755982989,1.1581130983231903E-9,109.35974381125995,327.6829204557825,1005.4119030919094,1405.4749390323075,1625.7718670583909,2192.13682891344,2266.961582574662,3022.9917722808573,4002.534198225814,4024.999920899673,4103.1421852182675,4398.125027704938,5700.865294512255,5746.266081476543,5792.972674881036,7851.692252497359,8025.566134107399,8205.98447298649,8822.221841852052
57.59586531581287,6.510188051012407E-9,131.32545072226807,367.4757772058314,1022.6835829673009,1411.0790399416317,1663.8202665407528,2199.0864268902596,2327.6746892972683,3109.1287363005126,4002.6852036710247,4039.772797404302,4108.0163213505075,4395.256474456437,5711.145983199377,5744.97324115176,5792.221165115931,7863.806726695382,8024.6048902482635,8226.587376051199,8821.006420917514
62.83185307179586,5.41288814704441E-10,154.96984950831305,406.0719392573591,1038.1613567862382,1414.5721497970599,1696.9878274073737,2206.3498216996823,2384.4334736572664,3204.3952163585077,4002.709193500925,4055.473735176085,4114.607953944339,4392.286692612469,5722.663577211223,5743.560458683328,5791.419597925208,7875.577438227723,8023.590384597557,8251.205067702162,8819.693535605205
68.06784082777887,5.971955189415053E-10,180.20109448374552,443.65276555292274,1052.2578360799987,1416.8954460015573,1725.7932327919225,2213.849645431159,2436.8413877406074,3306.3247933280886,4002.568040028911,4071.6571743792,4123.742327702306,4389.262849083358,5735.491143978917,5742.028993069164,5790.573214245252,7886.686345423248,8022.53499171365,8280.273192343891,8818.286207155264
73.30382858376184,2.379446304919098E-9,206.92384355114157,480.3270442983765,1065.2233591679967,1418.5157230377056,1750.8777840766284,2221.5078160814624,2485.2046668318494,3412.0133032809176,4002.221207151872,4087.837809108901,4136.477655947314,4386.235565079633,5740.37999846133,5749.70892317587,5789.687446329887,7896.877540607468,8021.452785604577,8314.15778191921,8816.785748295993